 Gaussian 16, Revision B.01,
 Gaussian 16:  EM64W-G16RevB.01 16-Dec-2017

 -----------------------
 # Opt Freq B3LYP/6-31G*
 -----------------------

 ---------
 perhydrol
 ---------
 Symbolic Z-matrix:
 Charge =  0 Multiplicity = 1

 SCF Done:  E(RB3LYP) =  -151.517223078     A.U. after   10 cycles
 SCF Done:  E(RB3LYP) =  -151.530979558     A.U. after   11 cycles
 SCF Done:  E(RB3LYP) =  -151.533079225     A.U. after   10 cycles
 SCF Done:  E(RB3LYP) =  -151.533211032     A.U. after    9 cycles
 SCF Done:  E(RB3LYP) =  -151.533212590     A.U. after    7 cycles
 SCF Done:  E(RB3LYP) =  -151.533213464     A.U. after    7 cycles
 SCF Done:  E(RB3LYP) =  -151.533213602     A.U. after    6 cycles
 Optimization completed.
    -- Stationary point found.
 Normal termination of Gaussian 16 at Fri Mar 17 08:32:25 2023.

 --------------------------------------------------------------------
 #N Geom=AllCheck Guess=TCheck SCRF=Check GenChk RB3LYP/6-31G(d) Freq
 --------------------------------------------------------------------

 Structure from the checkpoint file:  "example1.chk"
 ---------
 perhydrol
 ---------
 Charge =  0 Multiplicity = 1

                         Standard orientation:
 ---------------------------------------------------------------------
 Center     Atomic      Atomic             Coordinates (Angstroms)
 Number     Number       Type             X           Y           Z
 ---------------------------------------------------------------------
      1          8           0        0.000000    0.727898   -0.054486
      2          1           0        0.824967    0.891690    0.435891
      3          8           0        0.000000   -0.727898   -0.054486
      4          1           0       -0.824967   -0.891690    0.435891
 ---------------------------------------------------------------------

 SCF Done:  E(RB3LYP) =  -151.533213602     A.U. after    1 cycles

 The electronic state is 1-A.
 Alpha  occ. eigenvalues --  -19.20276 -19.20268  -1.11065  -0.89402  -0.52287
 Alpha  occ. eigenvalues --   -0.48872  -0.41173  -0.31796  -0.26939
 Alpha virt. eigenvalues --    0.02456   0.06908   0.11588   0.77726   0.78028
 Alpha virt. eigenvalues --    0.81226   0.83896   0.92157   0.95585   0.98371
 Alpha virt. eigenvalues --    1.04487   1.18806   1.31841   1.51013   1.51427

 Mulliken charges:
               1
     1  O   -0.417396
     2  H    0.417396
     3  O   -0.417396
     4  H    0.417396
 Sum of Mulliken charges =   0.00000

 Dipole moment (field-independent basis, Debye):
    X=              0.0000    Y=              0.0000    Z=              1.7836  Tot=              1.7836
 Quadrupole moment (field-independent basis, Debye-Ang):
   XX=             -9.1658   YY=            -11.0880   ZZ=            -11.5487
   XY=              3.0106   XZ=              0.0000   YZ=              0.0000

  Exact polarizability:   9.462   2.317  13.828   0.000   0.000   6.221
 Approx polarizability:  12.017   2.062  20.613   0.000   0.000   7.719

                      1                      2                      3
                      A                      A                      B
 Frequencies --    348.3291               957.5045              1331.2092
 Red. masses --      1.0830                14.3987                 1.1002
 Frc consts  --      0.0774                 7.7778                 1.1487
 IR Inten    --    202.5310                 1.6483               107.5442

                      4                      5                      6
                      A                      A                      B
 Frequencies --   1469.7269              3706.9244              3709.5788
 Red. masses --      1.0891                 1.0702                 1.0676
 Frc consts  --      1.3861                 8.6648                 8.6557
 IR Inten    --      0.4505                 5.2857                30.0055

 - Thermochemistry -
 -------------------
 Temperature   298.150 Kelvin.  Pressure   1.00000 Atm.
 Atom     1 has atomic number  8 and mass  15.99491

 Molecular mass:    34.00548 amu.
 Principal axes and moments of inertia in atomic units:
                           1         2         3
     Eigenvalues --     6.07344  68.33234  71.14916
           X            0.08536   0.99635   0.00000
           Y            0.99635  -0.08536   0.00000
           Z            0.00000   0.00000   1.00000
 This molecule is an asymmetric top.
 Rotational symmetry number  2.
 Rotational temperatures (Kelvin)     14.26110     1.26754     1.21736
 Rotational constants (GHZ):         297.15314    26.41123    25.36560
 Zero-point vibrational energy      68924.5 (Joules/Mol)
                                   16.47335 (Kcal/Mol)
 Warning -- explicit consideration of   1 degrees of freedom as
           vibrations may cause significant error
 Vibrational temperatures:    501.17  1377.64  1915.31  2114.61  5333.44
          (Kelvin)           5337.26

 Zero-point correction=                           0.026252 (Hartree/Particle)
 Thermal correction to Energy=                    0.029506
 Thermal correction to Enthalpy=                  0.030451
 Thermal correction to Gibbs Free Energy=         0.004567
 Sum of electronic and zero-point Energies=           -151.506962
 Sum of electronic and thermal Energies=              -151.503707
 Sum of electronic and thermal Enthalpies=            -151.502763
 Sum of electronic and thermal Free Energies=         -151.528647

                     E (Thermal)             CV                S
                      KCal/Mol        Cal/Mol-Kelvin    Cal/Mol-Kelvin
 Total                   18.516              8.183             54.478
 Electronic               0.000              0.000              0.000
 Translational            0.889              2.981             36.503
 Rotational               0.889              2.981             16.653
 Vibrational             16.738              2.222              1.322
 Vibration     1          0.726              1.579              1.174

 Optimization completed.
    -- Stationary point found.
 Normal termination of Gaussian 16 at Fri Mar 17 08:32:32 2023.
