 Gaussian 16, Revision B.01,
 Gaussian 16:  EM64W-G16RevB.01 16-Dec-2017

 -----------------------
 # Opt Freq B3LYP/6-31G*
 -----------------------

 ---------
 acetylene
 ---------
 Symbolic Z-matrix:
 Charge =  0 Multiplicity = 1

 SCF Done:  E(RB3LYP) =  -77.3255997944     A.U. after    7 cycles
 SCF Done:  E(RB3LYP) =  -77.3256453856     A.U. after    6 cycles
 SCF Done:  E(RB3LYP) =  -77.3256459989     A.U. after    5 cycles
 Optimization completed.
    -- Stationary point found.
 Normal termination of Gaussian 16 at Fri Mar 17 08:33:10 2023.

 --------------------------------------------------------------------
 #N Geom=AllCheck Guess=TCheck SCRF=Check GenChk RB3LYP/6-31G(d) Freq
 --------------------------------------------------------------------

 Structure from the checkpoint file:  "example2.chk"
 ---------
 acetylene
 ---------
 Charge =  0 Multiplicity = 1

                         Standard orientation:
 ---------------------------------------------------------------------
 Center     Atomic      Atomic             Coordinates (Angstroms)
 Number     Number       Type             X           Y           Z
 ---------------------------------------------------------------------
      1          6           0        0.000000    0.000000    0.602486
      2          1           0        0.000000    0.000000    1.669128
      3          6           0        0.000000    0.000000   -0.602486
      4          1           0        0.000000    0.000000   -1.669128
 ---------------------------------------------------------------------

 SCF Done:  E(RB3LYP) =  -77.3256459989     A.U. after    1 cycles

 The electronic state is 1-SGG.
 Alpha  occ. eigenvalues --  -10.19217 -10.18976  -0.74262  -0.56539  -0.49158
 Alpha  occ. eigenvalues --   -0.28193  -0.28193
 Alpha virt. eigenvalues --    0.05243   0.05243   0.10558   0.14883   0.42673
 Alpha virt. eigenvalues --    0.47082   0.53292   0.53292   0.65425   0.65425
 Alpha virt. eigenvalues --    0.74675   0.82440   1.02846   1.21766   1.50514

 Mulliken charges:
               1
     1  C   -0.188311
     2  H    0.188311
     3  C   -0.188311
     4  H    0.188311
 Sum of Mulliken charges =   0.00000

 Dipole moment (field-independent basis, Debye):
    X=              0.0000    Y=              0.0000    Z=              0.0000  Tot=              0.0000
 Quadrupole moment (field-independent basis, Debye-Ang):
   XX=            -13.0251   YY=            -13.0251   ZZ=             -6.7619
   XY=              0.0000   XZ=              0.0000   YZ=              0.0000

  Exact polarizability:   7.863   0.000   7.863   0.000   0.000  27.847
 Approx polarizability:   9.711   0.000   9.711   0.000   0.000  50.810

                      1                      2                      3
                     PIG                    PIG                    PIU
 Frequencies --    535.0890               535.0890               775.3209
 Red. masses --      1.5723                 1.5723                 1.0848
 Frc consts  --      0.2652                 0.2652                 0.3842
 IR Inten    --      0.0000                 0.0000                81.0551

                      4                      5                      6
                     PIU                    SGG                    SGU
 Frequencies --    775.3209              2087.9722              3441.2290
 Red. masses --      1.0848                 3.8254                 1.0848
 Frc consts  --      0.3842                 9.8260                 7.5689
 IR Inten    --     81.0551                 0.0000                76.4994

                      7
                     SGG
 Frequencies --   3541.3995
 Red. masses --      1.2283
 Frc consts  --      9.0759
 IR Inten    --      0.0000

 - Thermochemistry -
 -------------------
 Temperature   298.150 Kelvin.  Pressure   1.00000 Atm.
 Atom     1 has atomic number  6 and mass  12.00000

 Molecular mass:    26.01565 amu.
 Principal axes and moments of inertia in atomic units:
                           1         2         3
     Eigenvalues --     0.00000  51.16379  51.16379
           X            0.00000   1.00000   0.00000
           Y            0.00000   0.00000   1.00000
           Z            1.00000   0.00000   0.00000
 This molecule is a prolate symmetric top.
 Rotational symmetry number  2.
 Rotational temperature (Kelvin)      1.69288
 Rotational constant (GHZ):          35.273795
 Zero-point vibrational energy      69930.2 (Joules/Mol)
                                   16.71372 (Kcal/Mol)
 Warning -- explicit consideration of   2 degrees of freedom as
           vibrations may cause significant error
 Vibrational temperatures:    769.87   769.87  1115.51  1115.51  3004.13
          (Kelvin)           4951.16  5095.28

 Zero-point correction=                           0.026635 (Hartree/Particle)
 Thermal correction to Energy=                    0.029566
 Thermal correction to Enthalpy=                  0.030511
 Thermal correction to Gibbs Free Energy=         0.007609
 Sum of electronic and zero-point Energies=            -77.299011
 Sum of electronic and thermal Energies=               -77.296080
 Sum of electronic and thermal Enthalpies=             -77.295135
 Sum of electronic and thermal Free Energies=          -77.318037

                     E (Thermal)             CV                S
                      KCal/Mol        Cal/Mol-Kelvin    Cal/Mol-Kelvin
 Total                   18.553              8.706             48.200
 Electronic               0.000              0.000              0.000
 Translational            0.889              2.981             35.704
 Rotational               0.592              1.987             10.886
 Vibrational             17.072              3.738              1.610
 Vibration     1          0.890              1.172              0.576
 Vibration     2          0.890              1.172              0.576

 Optimization completed.
    -- Stationary point found.
 Normal termination of Gaussian 16 at Fri Mar 17 08:33:16 2023.
